Created by Ilya Fedorov for Hydrogen research

2000 atoms
2 atom types

0.000000 17.700000 xlo xhi
0.000000 17.700000 ylo yhi
0.000000 17.700000 zlo zhi

Masses

1 1.007940
1 1.000000

Atoms

