Created by Ilya Fedorov for Hydrogen research

2000 atoms
2 atom types

0.000000 17.700000 xlo xhi
0.000000 17.700000 ylo yhi
0.000000 17.700000 zlo zhi

Masses

1 1.007940
1 1.000000

Atoms

1	1	1.000000	0	0.000000	0.326778	0.105530	0.137765
2	1	1.000000	0	0.000000	-0.326778	-0.105530	-0.137765
3	2	0.000000	1	1.823572	0.088318	0.028522	0.037234
4	2	0.000000	-1	1.823572	-0.176637	-0.057043	-0.074468
5	1	1.000000	0	0.000000	-0.155462	0.196897	15.759462
6	1	1.000000	0	0.000000	0.155462	-0.196897	15.215538
7	2	0.000000	1	1.823572	-0.042017	0.053215	15.561003
8	2	0.000000	-1	1.823572	0.084034	-0.106431	15.340494
9	1	1.000000	0	0.000000	0.098460	-0.107731	4.765000
10	1	1.000000	0	0.000000	-0.098460	0.107731	4.085000
11	2	0.000000	1	1.823572	0.026611	-0.029116	4.516892
12	2	0.000000	-1	1.823572	-0.053221	0.058233	4.241216
13	1	1.000000	0	0.000000	0.002870	0.002147	11.432483
14	1	1.000000	0	0.000000	-0.002870	-0.002147	10.692517
15	2	0.000000	1	1.823572	0.000776	0.000580	11.162495
16	2	0.000000	-1	1.823572	-0.001551	-0.001161	10.862509
17	1	1.000000	0	0.000000	-0.025812	-0.033872	9.217541
18	1	1.000000	0	0.000000	0.025812	0.033872	8.482459
19	2	0.000000	1	1.823572	-0.006976	-0.009155	8.949335
20	2	0.000000	-1	1.823572	0.013952	0.018309	8.651329
21	1	1.000000	0	0.000000	-0.211509	1.990201	18.002671
22	1	1.000000	0	0.000000	0.211509	1.943133	17.397329
23	2	0.000000	1	1.823572	-0.057165	1.973027	17.781803
24	2	0.000000	-1	1.823572	0.114329	1.953946	17.536394
25	1	1.000000	0	0.000000	-0.359862	1.980274	2.297436
26	1	1.000000	0	0.000000	0.359862	1.953060	2.127564
27	2	0.000000	1	1.823572	-0.097260	1.970344	2.235456
28	2	0.000000	-1	1.823572	0.194520	1.959312	2.166589
29	1	1.000000	0	0.000000	0.045141	2.298780	13.431727
30	1	1.000000	0	0.000000	-0.045141	1.634554	13.118273
31	2	0.000000	1	1.823572	0.012200	2.056427	13.317359
32	2	0.000000	-1	1.823572	-0.024400	1.787146	13.190283
33	1	1.000000	0	0.000000	-0.151204	1.629323	11.077876
34	1	1.000000	0	0.000000	0.151204	2.304011	11.047124
35	2	0.000000	1	1.823572	-0.040866	1.875493	11.066656
36	2	0.000000	-1	1.823572	0.081732	2.149015	11.054188
37	1	1.000000	0	0.000000	-0.000242	1.966897	9.220000
38	1	1.000000	0	0.000000	0.000242	1.966437	8.480000
39	2	0.000000	1	1.823572	-0.000065	1.966729	8.950000
40	2	0.000000	-1	1.823572	0.000131	1.966542	8.650000
41	1	1.000000	0	0.000000	0.113502	4.149639	0.277901
42	1	1.000000	0	0.000000	-0.113502	3.717027	-0.277901
43	2	0.000000	1	1.823572	0.030676	3.991794	0.075108
44	2	0.000000	-1	1.823572	-0.061352	3.816411	-0.150217
45	1	1.000000	0	0.000000	0.075356	3.920959	15.849534
46	1	1.000000	0	0.000000	-0.075356	3.945708	15.125466
47	2	0.000000	1	1.823572	0.020366	3.929989	15.585347
48	2	0.000000	-1	1.823572	-0.040733	3.940022	15.291806
49	1	1.000000	0	0.000000	-0.154893	3.597347	13.279608
50	1	1.000000	0	0.000000	0.154893	4.269320	13.270392
51	2	0.000000	1	1.823572	-0.041863	3.842526	13.276245
52	2	0.000000	-1	1.823572	0.083726	4.114948	13.272509
53	1	1.000000	0	0.000000	-0.004493	3.929062	7.007448
54	1	1.000000	0	0.000000	0.004493	3.937605	6.267552
55	2	0.000000	1	1.823572	-0.001214	3.932179	6.737486
56	2	0.000000	-1	1.823572	0.002428	3.935642	6.437528
57	1	1.000000	0	0.000000	-0.086782	3.941568	9.209585
58	1	1.000000	0	0.000000	0.086782	3.925099	8.490415
59	2	0.000000	1	1.823572	-0.023455	3.935559	8.947185
60	2	0.000000	-1	1.823572	0.046909	3.928882	8.655630
61	1	1.000000	0	0.000000	-0.368299	5.904369	17.735167
62	1	1.000000	0	0.000000	0.368299	5.895631	17.664833
63	2	0.000000	1	1.823572	-0.099540	5.901181	17.709504
64	2	0.000000	-1	1.823572	0.199081	5.897639	17.680991
65	1	1.000000	0	0.000000	-0.005741	5.926460	15.856508
66	1	1.000000	0	0.000000	0.005741	5.873540	15.118492
67	2	0.000000	1	1.823572	-0.001552	5.907151	15.587232
68	2	0.000000	-1	1.823572	0.003103	5.885697	15.288036
69	1	1.000000	0	0.000000	-0.137567	5.625027	4.630827
70	1	1.000000	0	0.000000	0.137567	6.174973	4.219173
71	2	0.000000	1	1.823572	-0.037180	5.825683	4.480629
72	2	0.000000	-1	1.823572	0.074361	6.048634	4.313742
73	1	1.000000	0	0.000000	0.352518	5.876645	6.747434
74	1	1.000000	0	0.000000	-0.352518	5.923355	6.527566
75	2	0.000000	1	1.823572	0.095275	5.893688	6.667212
76	2	0.000000	-1	1.823572	-0.190550	5.912624	6.578076
77	1	1.000000	0	0.000000	-0.311644	5.954511	9.041850
78	1	1.000000	0	0.000000	0.311644	5.845489	8.658150
79	2	0.000000	1	1.823572	-0.084228	5.914733	8.901851
80	2	0.000000	-1	1.823572	0.168456	5.870535	8.746297
81	1	1.000000	0	0.000000	-0.156124	8.174495	17.833293
82	1	1.000000	0	0.000000	0.156124	7.558838	17.566707
83	2	0.000000	1	1.823572	-0.042196	7.949864	17.736025
84	2	0.000000	-1	1.823572	0.084391	7.700273	17.627950
85	1	1.000000	0	0.000000	0.090303	7.524466	2.320406
86	1	1.000000	0	0.000000	-0.090303	8.208868	2.104594
87	2	0.000000	1	1.823572	0.024406	7.774180	2.241664
88	2	0.000000	-1	1.823572	-0.048812	8.051640	2.154172
89	1	1.000000	0	0.000000	-0.116329	7.945435	13.617291
90	1	1.000000	0	0.000000	0.116329	7.787898	12.932709
91	2	0.000000	1	1.823572	-0.031440	7.887955	13.367511
92	2	0.000000	-1	1.823572	0.062881	7.824089	13.089978
93	1	1.000000	0	0.000000	-0.097399	8.023167	6.958313
94	1	1.000000	0	0.000000	0.097399	7.710166	6.316687
95	2	0.000000	1	1.823572	-0.026324	7.908964	6.724206
96	2	0.000000	-1	1.823572	0.052648	7.782072	6.464088
97	1	1.000000	0	0.000000	-0.235369	8.101998	9.011618
98	1	1.000000	0	0.000000	0.235369	7.631335	8.688382
99	2	0.000000	1	1.823572	-0.063613	7.930270	8.893681
100	2	0.000000	-1	1.823572	0.127227	7.739461	8.762639
101	1	1.000000	0	0.000000	0.001267	9.670629	0.332304
102	1	1.000000	0	0.000000	-0.001267	9.996037	-0.332304
103	2	0.000000	1	1.823572	0.000342	9.789359	0.089812
104	2	0.000000	-1	1.823572	-0.000685	9.921281	-0.179624
105	1	1.000000	0	0.000000	0.026651	10.164184	2.375986
106	1	1.000000	0	0.000000	-0.026651	9.502483	2.049014
107	2	0.000000	1	1.823572	0.007203	9.922752	2.256685
108	2	0.000000	-1	1.823572	-0.014406	9.654495	2.124129
109	1	1.000000	0	0.000000	-0.317233	9.820261	4.614980
110	1	1.000000	0	0.000000	0.317233	9.846406	4.235020
111	2	0.000000	1	1.823572	-0.085739	9.829800	4.476346
112	2	0.000000	-1	1.823572	0.171477	9.840400	4.322308
113	1	1.000000	0	0.000000	-0.297510	10.015817	11.185333
114	1	1.000000	0	0.000000	0.297510	9.650850	10.939667
115	2	0.000000	1	1.823572	-0.080408	9.882653	11.095698
116	2	0.000000	-1	1.823572	0.160816	9.734694	10.996104
117	1	1.000000	0	0.000000	0.032897	9.510717	9.028148
118	1	1.000000	0	0.000000	-0.032897	10.155949	8.671852
119	2	0.000000	1	1.823572	0.008891	9.746140	8.898148
120	2	0.000000	-1	1.823572	-0.017782	10.007720	8.753704
121	1	1.000000	0	0.000000	-0.284493	11.916077	17.906131
122	1	1.000000	0	0.000000	0.284493	11.683923	17.493869
123	2	0.000000	1	1.823572	-0.076890	11.831372	17.755711
124	2	0.000000	-1	1.823572	0.153780	11.737256	17.588578
125	1	1.000000	0	0.000000	0.190024	11.609224	15.741263
126	1	1.000000	0	0.000000	-0.190024	11.990776	15.233737
127	2	0.000000	1	1.823572	0.051358	11.748439	15.556084
128	2	0.000000	-1	1.823572	-0.102716	11.903122	15.350331
129	1	1.000000	0	0.000000	-0.369759	11.809682	13.284198
130	1	1.000000	0	0.000000	0.369759	11.790318	13.265802
131	2	0.000000	1	1.823572	-0.099935	11.802617	13.277486
132	2	0.000000	-1	1.823572	0.199870	11.794767	13.270028
133	1	1.000000	0	0.000000	0.277094	11.558845	11.106811
134	1	1.000000	0	0.000000	-0.277094	12.041155	11.018189
135	2	0.000000	1	1.823572	0.074890	11.734823	11.074476
136	2	0.000000	-1	1.823572	-0.149780	11.930354	11.038548
137	1	1.000000	0	0.000000	-0.031363	11.559751	9.129637
138	1	1.000000	0	0.000000	0.031363	12.040249	8.570363
139	2	0.000000	1	1.823572	-0.008476	11.735068	8.925578
140	2	0.000000	-1	1.823572	0.016953	11.929864	8.698845
141	1	1.000000	0	0.000000	0.005251	13.453721	17.897325
142	1	1.000000	0	0.000000	-0.005251	14.079613	17.502675
143	2	0.000000	1	1.823572	0.001419	13.682087	17.753331
144	2	0.000000	-1	1.823572	-0.002839	13.935827	17.593338
145	1	1.000000	0	0.000000	0.334329	13.679016	15.619567
146	1	1.000000	0	0.000000	-0.334329	13.854317	15.355433
147	2	0.000000	1	1.823572	0.090359	13.742977	15.523194
148	2	0.000000	-1	1.823572	-0.180718	13.814045	15.416113
149	1	1.000000	0	0.000000	0.135223	14.106139	4.483079
150	1	1.000000	0	0.000000	-0.135223	13.427194	4.366921
151	2	0.000000	1	1.823572	0.036547	13.858416	4.440697
152	2	0.000000	-1	1.823572	-0.073093	13.583168	4.393606
153	1	1.000000	0	0.000000	0.171764	13.812629	6.961976
154	1	1.000000	0	0.000000	-0.171764	13.720704	6.313024
155	2	0.000000	1	1.823572	0.046423	13.779089	6.725196
156	2	0.000000	-1	1.823572	-0.092845	13.741822	6.462108
157	1	1.000000	0	0.000000	-0.258259	13.920627	9.065635
158	1	1.000000	0	0.000000	0.258259	13.612706	8.634365
159	2	0.000000	1	1.823572	-0.069800	13.808278	8.908280
160	2	0.000000	-1	1.823572	0.139600	13.683445	8.733441
161	1	1.000000	0	0.000000	-0.004085	15.363401	17.705781
162	1	1.000000	0	0.000000	0.004085	16.103266	17.694219
163	2	0.000000	1	1.823572	-0.001104	15.633352	17.701562
164	2	0.000000	-1	1.823572	0.002208	15.933297	17.696875
165	1	1.000000	0	0.000000	-0.025276	15.408737	2.388279
166	1	1.000000	0	0.000000	0.025276	16.057930	2.036721
167	2	0.000000	1	1.823572	-0.006831	15.645605	2.260008
168	2	0.000000	-1	1.823572	0.013662	15.908791	2.117484
169	1	1.000000	0	0.000000	0.294383	15.817419	13.482769
170	1	1.000000	0	0.000000	-0.294383	15.649247	13.067231
171	2	0.000000	1	1.823572	0.079563	15.756059	13.331154
172	2	0.000000	-1	1.823572	-0.159126	15.687881	13.162692
173	1	1.000000	0	0.000000	-0.099229	15.949003	6.921296
174	1	1.000000	0	0.000000	0.099229	15.517664	6.353704
175	2	0.000000	1	1.823572	-0.026819	15.791622	6.714202
176	2	0.000000	-1	1.823572	0.053638	15.616755	6.484097
177	1	1.000000	0	0.000000	0.342651	15.872134	8.864987
178	1	1.000000	0	0.000000	-0.342651	15.594532	8.835013
179	2	0.000000	1	1.823572	0.092608	15.770847	8.854051
180	2	0.000000	-1	1.823572	-0.185217	15.658306	8.841899
181	1	1.000000	0	0.000000	-0.021791	17.712220	0.369156
182	1	1.000000	0	0.000000	0.021791	17.687780	-0.369156
183	2	0.000000	1	1.823572	-0.005889	17.703303	0.099772
184	2	0.000000	-1	1.823572	0.011779	17.693395	-0.199544
185	1	1.000000	0	0.000000	-0.041803	17.542101	2.544495
186	1	1.000000	0	0.000000	0.041803	17.857899	1.880505
187	2	0.000000	1	1.823572	-0.011298	17.657325	2.302228
188	2	0.000000	-1	1.823572	0.022596	17.785351	2.033044
189	1	1.000000	0	0.000000	0.339341	17.703060	4.572440
190	1	1.000000	0	0.000000	-0.339341	17.696940	4.277560
191	2	0.000000	1	1.823572	0.091714	17.700827	4.464849
192	2	0.000000	-1	1.823572	-0.183427	17.698346	4.345303
193	1	1.000000	0	0.000000	0.243781	17.485474	11.239839
194	1	1.000000	0	0.000000	-0.243781	17.914526	10.885161
195	2	0.000000	1	1.823572	0.065887	17.642020	11.110430
196	2	0.000000	-1	1.823572	-0.131774	17.815960	10.966641
197	1	1.000000	0	0.000000	-0.336331	17.583826	8.951417
198	1	1.000000	0	0.000000	0.336331	17.816174	8.748583
199	2	0.000000	1	1.823572	-0.090900	17.668602	8.877410
200	2	0.000000	-1	1.823572	0.181800	17.762797	8.795180
201	1	1.000000	0	0.000000	2.240279	-0.116740	17.920019
202	1	1.000000	0	0.000000	1.693055	0.116740	17.479981
203	2	0.000000	1	1.823572	2.040616	-0.031551	17.759465
204	2	0.000000	-1	1.823572	1.818768	0.063103	17.581071
205	1	1.000000	0	0.000000	1.716876	0.221501	15.647006
206	1	1.000000	0	0.000000	2.216457	-0.221501	15.327994
207	2	0.000000	1	1.823572	1.899156	0.059865	15.530610
208	2	0.000000	-1	1.823572	2.101689	-0.119730	15.401280
209	1	1.000000	0	0.000000	1.949953	0.369219	4.442257
210	1	1.000000	0	0.000000	1.983380	-0.369219	4.407743
211	2	0.000000	1	1.823572	1.962149	0.099789	4.429664
212	2	0.000000	-1	1.823572	1.975701	-0.199578	4.415672
213	1	1.000000	0	0.000000	2.129240	0.253236	11.277771
214	1	1.000000	0	0.000000	1.804093	-0.253236	10.847229
215	2	0.000000	1	1.823572	2.010605	0.068442	11.120681
216	2	0.000000	-1	1.823572	1.878789	-0.136884	10.946138
217	1	1.000000	0	0.000000	1.993190	-0.368625	8.867675
218	1	1.000000	0	0.000000	1.940143	0.368625	8.832325
219	2	0.000000	1	1.823572	1.973835	-0.099628	8.854777
220	2	0.000000	-1	1.823572	1.952330	0.199257	8.840446
221	1	1.000000	0	0.000000	2.324866	2.035835	0.061720
222	1	1.000000	0	0.000000	1.608468	1.897498	-0.061720
223	2	0.000000	1	1.823572	2.063477	1.985361	0.016681
224	2	0.000000	-1	1.823572	1.773046	1.929278	-0.033362
225	1	1.000000	0	0.000000	1.953384	2.216082	15.760476
226	1	1.000000	0	0.000000	1.979949	1.717252	15.214524
227	2	0.000000	1	1.823572	1.963077	2.034076	15.561277
228	2	0.000000	-1	1.823572	1.973846	1.831848	15.339946
229	1	1.000000	0	0.000000	2.297923	1.938534	4.587412
230	1	1.000000	0	0.000000	1.635410	1.994799	4.262588
231	2	0.000000	1	1.823572	2.056195	1.959063	4.468895
232	2	0.000000	-1	1.823572	1.787609	1.981874	4.337210
233	1	1.000000	0	0.000000	1.616546	1.870090	6.708130
234	1	1.000000	0	0.000000	2.316787	2.063243	6.566870
235	2	0.000000	1	1.823572	1.872039	1.940565	6.656589
236	2	0.000000	-1	1.823572	2.155921	2.018870	6.599322
237	1	1.000000	0	0.000000	1.909052	2.000685	9.213900
238	1	1.000000	0	0.000000	2.024281	1.932648	8.486100
239	2	0.000000	1	1.823572	1.951095	1.975861	8.948351
240	2	0.000000	-1	1.823572	1.997810	1.948278	8.653297
241	1	1.000000	0	0.000000	2.035185	4.002219	18.057015
242	1	1.000000	0	0.000000	1.898148	3.864448	17.342985
243	2	0.000000	1	1.823572	1.985185	3.951951	17.796491
244	2	0.000000	-1	1.823572	1.929630	3.896098	17.507019
245	1	1.000000	0	0.000000	1.879738	3.891092	2.569654
246	1	1.000000	0	0.000000	2.053595	3.975575	1.855346
247	2	0.000000	1	1.823572	1.943173	3.921917	2.309028
248	2	0.000000	-1	1.823572	2.013655	3.956166	2.019444
249	1	1.000000	0	0.000000	2.077115	3.641282	4.623512
250	1	1.000000	0	0.000000	1.856218	4.225385	4.226488
251	2	0.000000	1	1.823572	1.996518	3.854400	4.478652
252	2	0.000000	-1	1.823572	1.906965	4.091199	4.317696
253	1	1.000000	0	0.000000	1.973238	3.931969	11.432439
254	1	1.000000	0	0.000000	1.960095	3.934698	10.692561
255	2	0.000000	1	1.823572	1.968443	3.932965	11.162484
256	2	0.000000	-1	1.823572	1.963114	3.934071	10.862533
257	1	1.000000	0	0.000000	2.089550	4.180135	9.096756
258	1	1.000000	0	0.000000	1.843783	3.686532	8.603244
259	2	0.000000	1	1.823572	1.999878	4.000036	8.916691
260	2	0.000000	-1	1.823572	1.900243	3.799927	8.716618
261	1	1.000000	0	0.000000	2.148660	5.708578	0.259106
262	1	1.000000	0	0.000000	1.784673	6.091422	-0.259106
263	2	0.000000	1	1.823572	2.015854	5.848264	0.070029
264	2	0.000000	-1	1.823572	1.868292	6.003471	-0.140057
265	1	1.000000	0	0.000000	2.207668	5.621003	15.518782
266	1	1.000000	0	0.000000	1.725665	6.178997	15.456218
267	2	0.000000	1	1.823572	2.031802	5.824595	15.495955
268	2	0.000000	-1	1.823572	1.836395	6.050809	15.470591
269	1	1.000000	0	0.000000	1.611917	5.907223	13.379884
270	1	1.000000	0	0.000000	2.321416	5.892777	13.170116
271	2	0.000000	1	1.823572	1.870788	5.901952	13.303347
272	2	0.000000	-1	1.823572	2.158423	5.896096	13.218306
273	1	1.000000	0	0.000000	1.984786	5.977199	6.998903
274	1	1.000000	0	0.000000	1.948547	5.822801	6.276097
275	2	0.000000	1	1.823572	1.971564	5.920865	6.735176
276	2	0.000000	-1	1.823572	1.956872	5.858271	6.442147
277	1	1.000000	0	0.000000	1.949950	5.839219	9.214590
278	1	1.000000	0	0.000000	1.983384	5.960781	8.485410
279	2	0.000000	1	1.823572	1.962149	5.883573	8.948538
280	2	0.000000	-1	1.823572	1.975703	5.932855	8.652924
281	1	1.000000	0	0.000000	1.986158	7.896097	18.068312
282	1	1.000000	0	0.000000	1.947175	7.837236	17.331688
283	2	0.000000	1	1.823572	1.971935	7.874621	17.799544
284	2	0.000000	-1	1.823572	1.956131	7.850758	17.500912
285	1	1.000000	0	0.000000	2.276262	7.716805	15.623853
286	1	1.000000	0	0.000000	1.657071	8.016528	15.351147
287	2	0.000000	1	1.823572	2.050341	7.826163	15.524352
288	2	0.000000	-1	1.823572	1.799318	7.947673	15.413796
289	1	1.000000	0	0.000000	1.797486	7.655324	4.677214
290	1	1.000000	0	0.000000	2.135847	8.078010	4.172786
291	2	0.000000	1	1.823572	1.920942	7.809547	4.493166
292	2	0.000000	-1	1.823572	2.058116	7.980906	4.288668
293	1	1.000000	0	0.000000	2.037018	7.830928	6.998988
294	1	1.000000	0	0.000000	1.896315	7.902406	6.276012
295	2	0.000000	1	1.823572	1.985681	7.857008	6.735199
296	2	0.000000	-1	1.823572	1.928639	7.885985	6.442101
297	1	1.000000	0	0.000000	1.762984	8.174111	8.879853
298	1	1.000000	0	0.000000	2.170349	7.559222	8.820147
299	2	0.000000	1	1.823572	1.911617	7.949760	8.858068
300	2	0.000000	-1	1.823572	2.076765	7.700480	8.833863
301	1	1.000000	0	0.000000	1.767410	9.679982	0.271441
302	1	1.000000	0	0.000000	2.165923	9.986685	-0.271441
303	2	0.000000	1	1.823572	1.912814	9.791887	0.073362
304	2	0.000000	-1	1.823572	2.074373	9.916226	-0.146725
305	1	1.000000	0	0.000000	1.824667	10.167830	15.557130
306	1	1.000000	0	0.000000	2.108666	9.498837	15.417870
307	2	0.000000	1	1.823572	1.928288	9.923738	15.506319
308	2	0.000000	-1	1.823572	2.043423	9.652524	15.449862
309	1	1.000000	0	0.000000	2.121269	9.814403	13.610618
310	1	1.000000	0	0.000000	1.812064	9.852264	12.939382
311	2	0.000000	1	1.823572	2.008451	9.828217	13.365708
312	2	0.000000	-1	1.823572	1.883098	9.843566	13.093585
313	1	1.000000	0	0.000000	1.945102	9.657798	11.387496
314	1	1.000000	0	0.000000	1.988231	10.008869	10.737504
315	2	0.000000	1	1.823572	1.960838	9.785891	11.150337
316	2	0.000000	-1	1.823572	1.978323	9.928217	10.886827
317	1	1.000000	0	0.000000	1.898634	10.197025	8.850089
318	1	1.000000	0	0.000000	2.034699	9.469642	8.849911
319	2	0.000000	1	1.823572	1.948279	9.931628	8.850024
320	2	0.000000	-1	1.823572	2.003441	9.636743	8.849952
321	1	1.000000	0	0.000000	1.885056	11.928236	18.037335
322	1	1.000000	0	0.000000	2.048277	11.671764	17.362665
323	2	0.000000	1	1.823572	1.944610	11.834658	17.791172
324	2	0.000000	-1	1.823572	2.010781	11.730683	17.517657
325	1	1.000000	0	0.000000	2.146030	11.796257	15.811096
326	1	1.000000	0	0.000000	1.787303	11.803743	15.163904
327	2	0.000000	1	1.823572	2.015143	11.798988	15.574958
328	2	0.000000	-1	1.823572	1.869713	11.802023	15.312583
329	1	1.000000	0	0.000000	1.872701	11.743165	13.628327
330	1	1.000000	0	0.000000	2.060633	11.856835	12.921673
331	2	0.000000	1	1.823572	1.941270	11.784639	13.370494
332	2	0.000000	-1	1.823572	2.017459	11.830721	13.084012
333	1	1.000000	0	0.000000	1.843342	12.024752	6.904291
334	1	1.000000	0	0.000000	2.089991	11.575248	6.370709
335	2	0.000000	1	1.823572	1.933336	11.860744	6.709606
336	2	0.000000	-1	1.823572	2.033328	11.678512	6.493289
337	1	1.000000	0	0.000000	1.964572	11.744966	9.215878
338	1	1.000000	0	0.000000	1.968761	11.855034	8.484122
339	2	0.000000	1	1.823572	1.966101	11.785126	8.948886
340	2	0.000000	-1	1.823572	1.967799	11.829748	8.652228
341	1	1.000000	0	0.000000	2.279435	13.612751	17.824039
342	1	1.000000	0	0.000000	1.653898	13.920583	17.575961
343	2	0.000000	1	1.823572	2.051199	13.725068	17.733524
344	2	0.000000	-1	1.823572	1.797603	13.849865	17.632952
345	1	1.000000	0	0.000000	1.924795	13.726008	15.852868
346	1	1.000000	0	0.000000	2.008539	13.807325	15.122132
347	2	0.000000	1	1.823572	1.955350	13.755678	15.586248
348	2	0.000000	-1	1.823572	1.989300	13.788644	15.290004
349	1	1.000000	0	0.000000	1.910063	13.731718	4.788971
350	1	1.000000	0	0.000000	2.023271	13.801616	4.061029
351	2	0.000000	1	1.823572	1.951368	13.757221	4.523370
352	2	0.000000	-1	1.823572	1.997263	13.785558	4.228259
353	1	1.000000	0	0.000000	2.000210	13.737554	11.429824
354	1	1.000000	0	0.000000	1.933123	13.795779	10.695176
355	2	0.000000	1	1.823572	1.975732	13.758798	11.161777
356	2	0.000000	-1	1.823572	1.948535	13.782403	10.863946
357	1	1.000000	0	0.000000	2.029852	14.118979	8.943723
358	1	1.000000	0	0.000000	1.903482	13.414355	8.756277
359	2	0.000000	1	1.823572	1.983744	13.861886	8.875330
360	2	0.000000	-1	1.823572	1.932513	13.576228	8.799339
361	1	1.000000	0	0.000000	2.173896	15.594396	17.973226
362	1	1.000000	0	0.000000	1.759437	15.872271	17.426774
363	2	0.000000	1	1.823572	2.022675	15.695783	17.773845
364	2	0.000000	-1	1.823572	1.854651	15.808435	17.552311
365	1	1.000000	0	0.000000	2.074392	15.691425	2.563981
366	1	1.000000	0	0.000000	1.858941	15.775241	1.861019
367	2	0.000000	1	1.823572	1.995782	15.722007	2.307495
368	2	0.000000	-1	1.823572	1.908437	15.755986	2.022510
369	1	1.000000	0	0.000000	1.762865	15.719612	13.583507
370	1	1.000000	0	0.000000	2.170469	15.747054	12.966493
371	2	0.000000	1	1.823572	1.911585	15.729625	13.358380
372	2	0.000000	-1	1.823572	2.076830	15.740750	13.108240
373	1	1.000000	0	0.000000	1.935051	15.389508	11.195483
374	1	1.000000	0	0.000000	1.998283	16.077159	10.929517
375	2	0.000000	1	1.823572	1.958122	15.640408	11.098441
376	2	0.000000	-1	1.823572	1.983756	15.919185	10.990617
377	1	1.000000	0	0.000000	1.851476	15.414217	8.997634
378	1	1.000000	0	0.000000	2.081857	16.052450	8.702366
379	2	0.000000	1	1.823572	1.935534	15.647086	8.889901
380	2	0.000000	-1	1.823572	2.028932	15.905829	8.770198
381	1	1.000000	0	0.000000	1.858606	17.788249	18.042688
382	1	1.000000	0	0.000000	2.074727	17.611751	17.357312
383	2	0.000000	1	1.823572	1.937461	17.723851	17.792618
384	2	0.000000	-1	1.823572	2.025078	17.652298	17.514763
385	1	1.000000	0	0.000000	2.215627	17.730981	2.484454
386	1	1.000000	0	0.000000	1.717706	17.669019	1.940546
387	2	0.000000	1	1.823572	2.033953	17.708373	2.286001
388	2	0.000000	-1	1.823572	1.832094	17.683253	2.065498
389	1	1.000000	0	0.000000	1.619396	17.819580	13.319762
390	1	1.000000	0	0.000000	2.313938	17.580420	13.230238
391	2	0.000000	1	1.823572	1.872810	17.732319	13.287098
392	2	0.000000	-1	1.823572	2.154381	17.635362	13.250804
393	1	1.000000	0	0.000000	1.897257	18.032669	6.783835
394	1	1.000000	0	0.000000	2.036076	17.367331	6.491165
395	2	0.000000	1	1.823572	1.947907	17.789910	6.677050
396	2	0.000000	-1	1.823572	2.004185	17.520179	6.558400
397	1	1.000000	0	0.000000	1.796672	17.846676	9.144088
398	1	1.000000	0	0.000000	2.136662	17.553324	8.555912
399	2	0.000000	1	1.823572	1.920722	17.739642	8.929483
400	2	0.000000	-1	1.823572	2.058556	17.620716	8.691033
401	1	1.000000	0	0.000000	4.216659	-0.194834	0.136625
402	1	1.000000	0	0.000000	3.650008	0.194834	-0.136625
403	2	0.000000	1	1.823572	4.009908	-0.052658	0.036926
404	2	0.000000	-1	1.823572	3.780184	0.105316	-0.073851
405	1	1.000000	0	0.000000	3.983166	-0.133574	15.828930
406	1	1.000000	0	0.000000	3.883501	0.133574	15.146070
407	2	0.000000	1	1.823572	3.946802	-0.036101	15.579779
408	2	0.000000	-1	1.823572	3.906397	0.072202	15.302943
409	1	1.000000	0	0.000000	3.982252	-0.046570	4.788783
410	1	1.000000	0	0.000000	3.884415	0.046570	4.061217
411	2	0.000000	1	1.823572	3.946554	-0.012586	4.523320
412	2	0.000000	-1	1.823572	3.906891	0.025173	4.228360
413	1	1.000000	0	0.000000	3.832064	-0.215479	6.920719
414	1	1.000000	0	0.000000	4.034603	0.215479	6.354281
415	2	0.000000	1	1.823572	3.905963	-0.058238	6.714046
416	2	0.000000	-1	1.823572	3.988073	0.116475	6.484408
417	1	1.000000	0	0.000000	4.148979	-0.253244	9.012063
418	1	1.000000	0	0.000000	3.717688	0.253244	8.687937
419	2	0.000000	1	1.823572	3.991616	-0.068444	8.893801
420	2	0.000000	-1	1.823572	3.816768	0.136889	8.762398
421	1	1.000000	0	0.000000	3.756635	1.980072	18.024804
422	1	1.000000	0	0.000000	4.110032	1.953261	17.375196
423	2	0.000000	1	1.823572	3.885577	1.970290	17.787785
424	2	0.000000	-1	1.823572	4.028846	1.959421	17.524430
425	1	1.000000	0	0.000000	4.249330	1.830546	2.348579
426	1	1.000000	0	0.000000	3.617337	2.102787	2.076421
427	2	0.000000	1	1.823572	4.018738	1.929877	2.249278
428	2	0.000000	-1	1.823572	3.762525	2.040245	2.138944
429	1	1.000000	0	0.000000	3.907991	1.939153	13.643104
430	1	1.000000	0	0.000000	3.958676	1.994180	12.906896
431	2	0.000000	1	1.823572	3.926484	1.959231	13.374488
432	2	0.000000	-1	1.823572	3.947032	1.981539	13.076025
433	1	1.000000	0	0.000000	3.913943	1.934501	7.005589
434	1	1.000000	0	0.000000	3.952723	1.998832	6.269411
435	2	0.000000	1	1.823572	3.928093	1.957973	6.736983
436	2	0.000000	-1	1.823572	3.943814	1.984054	6.438533
437	1	1.000000	0	0.000000	3.898845	1.677081	9.077708
438	1	1.000000	0	0.000000	3.967822	2.256252	8.622292
439	2	0.000000	1	1.823572	3.924012	1.888400	8.911543
440	2	0.000000	-1	1.823572	3.951976	2.123199	8.726915
441	1	1.000000	0	0.000000	3.985253	4.075004	0.337837
442	1	1.000000	0	0.000000	3.881414	3.791663	-0.337837
443	2	0.000000	1	1.823572	3.947366	3.971623	0.091307
444	2	0.000000	-1	1.823572	3.905269	3.856755	-0.182615
445	1	1.000000	0	0.000000	3.793130	3.928575	2.554875
446	1	1.000000	0	0.000000	4.073536	3.938092	1.870125
447	2	0.000000	1	1.823572	3.895441	3.932047	2.305034
448	2	0.000000	-1	1.823572	4.009119	3.935905	2.027433
449	1	1.000000	0	0.000000	4.107855	3.653141	4.592136
450	1	1.000000	0	0.000000	3.758812	4.213526	4.257864
451	2	0.000000	1	1.823572	3.980501	3.857606	4.470172
452	2	0.000000	-1	1.823572	3.838998	4.084789	4.334656
453	1	1.000000	0	0.000000	3.883116	4.257985	6.807734
454	1	1.000000	0	0.000000	3.983550	3.608682	6.467266
455	2	0.000000	1	1.823572	3.919761	4.021077	6.683509
456	2	0.000000	-1	1.823572	3.960478	3.757846	6.545482
457	1	1.000000	0	0.000000	3.963402	4.051195	9.199435
458	1	1.000000	0	0.000000	3.903265	3.815472	8.500565
459	2	0.000000	1	1.823572	3.941460	3.965188	8.944442
460	2	0.000000	-1	1.823572	3.917080	3.869624	8.661116
461	1	1.000000	0	0.000000	3.744036	6.135233	0.213850
462	1	1.000000	0	0.000000	4.122631	5.664767	-0.213850
463	2	0.000000	1	1.823572	3.882172	5.963576	0.057797
464	2	0.000000	-1	1.823572	4.035656	5.772847	-0.115595
465	1	1.000000	0	0.000000	4.219201	6.131719	15.526049
466	1	1.000000	0	0.000000	3.647466	5.668281	15.448951
467	2	0.000000	1	1.823572	4.010595	5.962627	15.497919
468	2	0.000000	-1	1.823572	3.778810	5.774747	15.466663
469	1	1.000000	0	0.000000	4.173793	5.663557	4.577229
470	1	1.000000	0	0.000000	3.692873	6.136443	4.272771
471	2	0.000000	1	1.823572	3.998322	5.836096	4.466143
472	2	0.000000	-1	1.823572	3.803355	6.027807	4.342714
473	1	1.000000	0	0.000000	3.906990	5.971006	6.999666
474	1	1.000000	0	0.000000	3.959676	5.828994	6.275334
475	2	0.000000	1	1.823572	3.926214	5.919191	6.735383
476	2	0.000000	-1	1.823572	3.947573	5.861618	6.441735
477	1	1.000000	0	0.000000	3.729180	6.190779	8.953292
478	1	1.000000	0	0.000000	4.137486	5.609221	8.746708
479	2	0.000000	1	1.823572	3.878157	5.978589	8.877917
480	2	0.000000	-1	1.823572	4.043686	5.742822	8.794167
481	1	1.000000	0	0.000000	4.001485	8.005657	0.336061
482	1	1.000000	0	0.000000	3.865182	7.727676	-0.336061
483	2	0.000000	1	1.823572	3.951753	7.904232	0.090827
484	2	0.000000	-1	1.823572	3.896495	7.791537	-0.181655
485	1	1.000000	0	0.000000	4.088555	8.171304	15.628930
486	1	1.000000	0	0.000000	3.778112	7.562029	15.346070
487	2	0.000000	1	1.823572	3.975285	7.949001	15.525724
488	2	0.000000	-1	1.823572	3.849430	7.701998	15.411052
489	1	1.000000	0	0.000000	3.727152	8.094627	4.630970
490	1	1.000000	0	0.000000	4.139514	7.638706	4.219030
491	2	0.000000	1	1.823572	3.877609	7.928278	4.480667
492	2	0.000000	-1	1.823572	4.044783	7.743445	4.313665
493	1	1.000000	0	0.000000	3.977071	7.889048	11.429223
494	1	1.000000	0	0.000000	3.889596	7.844285	10.695777
495	2	0.000000	1	1.823572	3.945154	7.872716	11.161614
496	2	0.000000	-1	1.823572	3.909691	7.854569	10.864271
497	1	1.000000	0	0.000000	4.101907	8.070157	9.108987
498	1	1.000000	0	0.000000	3.764759	7.663176	8.591013
499	2	0.000000	1	1.823572	3.978894	7.921664	8.919997
500	2	0.000000	-1	1.823572	3.842212	7.756672	8.710007
501	1	1.000000	0	0.000000	4.253502	9.693548	0.121868
502	1	1.000000	0	0.000000	3.613164	9.973119	-0.121868
503	2	0.000000	1	1.823572	4.019865	9.795554	0.032937
504	2	0.000000	-1	1.823572	3.760269	9.908893	-0.065875
505	1	1.000000	0	0.000000	4.110672	9.509681	15.513961
506	1	1.000000	0	0.000000	3.755994	10.156985	15.461039
507	2	0.000000	1	1.823572	3.981263	9.745860	15.494652
508	2	0.000000	-1	1.823572	3.837474	10.008280	15.473197
509	1	1.000000	0	0.000000	3.617904	9.731938	4.589691
510	1	1.000000	0	0.000000	4.248763	9.934729	4.260309
511	2	0.000000	1	1.823572	3.848082	9.805929	4.469511
512	2	0.000000	-1	1.823572	4.103836	9.888142	4.335978
513	1	1.000000	0	0.000000	4.001238	9.650022	6.951643
514	1	1.000000	0	0.000000	3.865429	10.016644	6.323357
515	2	0.000000	1	1.823572	3.951686	9.783790	6.722404
516	2	0.000000	-1	1.823572	3.896628	9.932420	6.467693
517	1	1.000000	0	0.000000	4.042594	9.797505	9.201679
518	1	1.000000	0	0.000000	3.824073	9.869162	8.498321
519	2	0.000000	1	1.823572	3.962863	9.823650	8.945049
520	2	0.000000	-1	1.823572	3.874274	9.852700	8.659903
521	1	1.000000	0	0.000000	3.652922	11.830871	0.239409
522	1	1.000000	0	0.000000	4.213744	11.769129	-0.239409
523	2	0.000000	1	1.823572	3.857547	11.808344	0.064705
524	2	0.000000	-1	1.823572	4.084907	11.783313	-0.129410
525	1	1.000000	0	0.000000	3.965124	11.800169	15.856132
526	1	1.000000	0	0.000000	3.901542	11.799831	15.118868
527	2	0.000000	1	1.823572	3.941926	11.800046	15.587130
528	2	0.000000	-1	1.823572	3.916149	11.799909	15.288240
529	1	1.000000	0	0.000000	4.060799	12.070956	13.492338
530	1	1.000000	0	0.000000	3.805868	11.529044	13.057662
531	2	0.000000	1	1.823572	3.967783	11.873231	13.333740
532	2	0.000000	-1	1.823572	3.864433	11.653538	13.157520
533	1	1.000000	0	0.000000	4.103378	12.102219	6.766528
534	1	1.000000	0	0.000000	3.763288	11.497781	6.508472
535	2	0.000000	1	1.823572	3.979291	11.881681	6.672372
536	2	0.000000	-1	1.823572	3.841417	11.636638	6.567755
537	1	1.000000	0	0.000000	4.089855	11.804110	9.185237
538	1	1.000000	0	0.000000	3.776812	11.795890	8.514763
539	2	0.000000	1	1.823572	3.975637	11.801111	8.940605
540	2	0.000000	-1	1.823572	3.848727	11.797778	8.668791
541	1	1.000000	0	0.000000	3.808288	13.754708	0.348024
542	1	1.000000	0	0.000000	4.058379	13.778626	-0.348024
543	2	0.000000	1	1.823572	3.899537	13.763434	0.094060
544	2	0.000000	-1	1.823572	4.000926	13.773131	-0.188121
545	1	1.000000	0	0.000000	3.950653	13.763282	15.857079
546	1	1.000000	0	0.000000	3.916013	13.770051	15.117921
547	2	0.000000	1	1.823572	3.938014	13.765752	15.587386
548	2	0.000000	-1	1.823572	3.923971	13.768496	15.287728
549	1	1.000000	0	0.000000	3.763358	14.031354	13.469805
550	1	1.000000	0	0.000000	4.103309	13.501980	13.080195